LAMMPS data file Created by Octave

    4177 atoms
    4328 bonds
    8400 angles
   12448 dihedrals
    2720 impropers

       7 atom types
       9 bond types
      15 angle types
       9 dihedral types
       2 improper types

  -19.849589   19.849589 xlo xhi
  -18.165634   18.165634 ylo yhi
  -14.213635   14.213635 zlo zhi
    0.609309    0.314643  -20.295092 xy xz yz

Masses

       1       1.008
       2       1.008
       3       6.941
       4      12.011
       5      12.011
       6      15.999
       7      32.060

Pair Coeffs

       1      0.0300   2.4200000
       2      0.0300   2.5000000
       3      0.4000   1.4000000
       4      0.0660   3.5000000
       5      0.0700   3.5500000
       6      0.1400   2.9000000
       7      0.3550   3.6000000

Bond Coeffs

       1    250.0000      1.7400
       2    250.0000      1.7600
       3    268.0000      1.5290
       4    320.0000      1.4100
       5    340.0000      1.0900
       6    367.0000      1.0800
       7    450.0000      1.3640
       8    469.0000      1.4240
       9    546.0000      1.3670

Angle Coeffs

       1     33.0000    107.8000
       2     35.0000    109.5000
       3     35.0000    125.0000
       4     35.0000    132.1000
       5     37.5000    110.7000
       6     50.0000    109.5000
       7     58.3500    112.7000
       8     62.7500    119.2000
       9     63.0000    112.4000
      10     63.0000    120.0000
      11     70.0000    107.3000
      12     70.0000    111.1700
      13     70.0000    120.0000
      14     75.0000    111.0000
      15     85.0000    119.4000

Dihedral Coeffs

       1      0.0000      0.0000      0.0000      0.0000
       2      0.0000      0.0000      0.3000      0.0000
       3      0.0000      0.0000      0.7600      0.0000
       4      0.0000      2.1000      0.0000      0.0000
       5      0.0000      2.1700      0.0000      0.0000
       6      0.0000      7.2500      0.0000      0.0000
       7      0.6500     -0.2500      0.6700      0.0000
       8      1.3000     -0.2000      0.2000      0.0000
       9      1.7110     -0.5000      0.6630      0.0000

Improper Coeffs

       1      0.0000      -1       2
       2      2.5000      -1       2

Atoms

     241       1       2      0.0810250        -7.212554253        -9.087774789        -5.848041449       0       0       0
     733       2       7      0.2353800        -1.569379719         17.52842936        -10.95919721       0       0       0
    2073       4       2      0.0964750         19.31373622         16.45891727        -2.689874124       0       0       0
    1154       3       6     -0.2728500        -8.743440871        -9.121126902         -3.35393559       0       0       0
    1672       4       5     -0.1049200        -7.939735084          11.4810361         -2.86125258       0       0       0
    1293       3       2      0.0925250        -1.903981144        -12.14770421        -4.074032104       0       0       0
    2791       6       2      0.0900750        -9.135032057         12.45700174       -0.3467459343       0       0       0
       6       1       5      0.0635167        -18.70655291        -2.354831667        -11.10918065       0       0       0
      12       1       4     -0.0951000        -18.44425528        -5.380788817        -10.23980251       0       0       0
      13       1       4      0.0029500        -19.37307422        -4.554400434        -11.19890971       0       0       0
      14       1       4     -0.1675750        -17.98386127        -6.655573844        -10.86962241       0       0       0
      15       1       4     -0.1675750        -19.25055085        -5.753536641        -8.955888508       0       0       0
      16       1       2      0.1159500        -19.12071989        -4.557480557        -12.27296613       0       0       0
    2051       4       2      0.1159500         19.21506901         14.08266108        -5.657756455       0       0       0
      19       1       2      0.0964750        -18.73874228        -7.113321094        -11.48468168       0       0       0
      20       1       2      0.0964750        -17.54471568        -7.274523328        -10.09220393       0       0       0
      23       1       2      0.0925250        -16.85532354        -5.716785036        -12.53898411       0       0       0
    1508       3       4     -0.2389500         18.86496549        -14.54460178        -5.758702896       0       0       0
    1106       3       2      0.1159500        -13.36128278        -3.772134752        -7.605461844       0       0       0
    2050       4       4     -0.1675750         19.06270407          16.8978273        -3.632545905       0       0       0
    1260       3       4      0.0029500        -1.673562752        -9.299921276       -0.9397774518       0       0       0
     114       1       2      0.1159500        -10.32868381        -4.091041966        -8.385367485       0       0       0
     811       2       2      0.0959750        -1.601518394         23.66082838         -13.6714015       0       0       0
    2693       6       2      0.0883500        -16.99487796          14.0457351        -2.616075284       0       0       0
    1027       2       4     -0.1769250         19.39297969         22.60991099        -12.01711479       0       0       0
       3       1       5      0.0267167        -17.29401563        -2.425724792        -10.95053652       0       0       0
     585       2       2      0.1159500        -11.26512733         20.59711037        -12.94482648       0       0       0
    1050       3       5      0.0635167        -18.56652003        -7.593600053        -4.761594489       0       0       0
     614       2       2      0.0925250        -12.68392177         22.44335176        -9.856042172       0       0       0
    1053       3       6     -0.2728500        -19.42297515        -8.518650759        -4.162419467       0       0       0
     584       2       2      0.1159500        -12.47623321          19.2615961        -13.18390485       0       0       0
     225       1       2      0.1159500        -3.962681243        -5.546545096        -10.67840096       0       0       0
    2904       6       2      0.0810250        -2.753950539         12.91335856        -0.818385687       0       0       0
    1151       3       7      0.2353800        -9.932144484        -5.728858313        -5.076160447       0       0       0
    3371       7       2      0.0883500        -7.399838921        -24.13193277         15.59722742       0       0       0
    2797       6       2      0.0883500        -10.49152158         16.01709066        -1.032139382       0       0       0
      37       1       2      0.0964750        -18.54822378        -6.215252854        -8.195711179       0       0       0
      26       1       2      0.0900750        -17.31628371        -8.397984239        -12.59089078       0       0       0
     724       2       2      0.0959750        -2.003306664         24.77119082        -8.388992243       0       0       0
     596       2       2      0.0925250        -14.86910525         23.41822848        -13.60081896       0       0       0
     113       1       6     -0.2728500        -11.47142145        -4.206479677        -10.66887475       0       0       0
    1057       3       4      0.0029500        -19.20658092        -9.808629738        -4.520911155       0       0       0
       5       1       6     -0.2728500        -16.69616036        -3.677149927         -10.8143169       0       0       0
     116       1       4     -0.0951000        -9.987323134         -5.86578504        -9.693763975       0       0       0
     117       1       4      0.0029500        -10.60455862        -5.384132973        -11.04001204       0       0       0
     118       1       4     -0.1675750        -11.16815105         -6.45886558        -8.849039225       0       0       0
     119       1       4     -0.1675750        -8.849593842        -6.897432455        -9.854477405       0       0       0
     120       1       2      0.1159500        -11.18796189        -6.074020006        -11.54521762       0       0       0
     121       1       2      0.1159500        -9.923358793        -4.984496454        -11.79267486       0       0       0
     122       1       4     -0.1769250        -11.87943144        -7.640136565        -9.552704708       0       0       0
     123       1       2      0.0964750        -11.88949141        -5.785927411        -8.642049564       0       0       0
     124       1       2      0.0964750        -10.84662012        -6.874672691        -7.909797928       0       0       0
     125       1       4     -0.1816250        -12.52106102        -8.684651757        -8.578390436       0       0       0
     126       1       2      0.0925250        -11.23465555        -8.192287334        -10.26802138       0       0       0
     127       1       2      0.0925250        -12.69547937          -7.2245437        -10.10858155       0       0       0
     128       1       4     -0.1892000         -11.6328957        -9.708066748        -7.895728135       0       0       0
     129       1       2      0.0900750        -13.26548788        -9.220482441        -9.179999537       0       0       0
     130       1       2      0.0900750        -13.18922108        -8.083213038        -8.003147612       0       0       0
     131       1       4     -0.1795000        -12.38842421         -10.5935994        -6.944016903       0       0       0
     132       1       2      0.0959750        -10.82281833         -9.11150529         -7.39210959       0       0       0
     133       1       2      0.0959750        -11.23543898        -10.28683829        -8.638385318       0       0       0
     134       1       4     -0.2389500        -13.66952786         -11.3855381        -7.470191079       0       0       0
     135       1       2      0.0883500        -11.64568162        -11.25311035        -6.526814346       0       0       0
     136       1       2      0.0883500         -12.6596835         -10.0856059          -6.0945135       0       0       0
     137       1       2      0.0810250        -14.39999282        -10.78914939        -7.928006189       0       0       0
     138       1       2      0.0810250        -13.98396857        -11.83421323        -6.573815423       0       0       0
     139       1       2      0.0810250        -13.44291743        -12.16655919        -8.144016311       0       0       0
     140       1       4     -0.1769250        -7.522613965        -6.301860198        -10.20593711       0       0       0
     141       1       2      0.0964750        -8.775312516        -7.373648854        -8.864151254       0       0       0
     142       1       2      0.0964750        -9.289707942        -7.637578361        -10.49126363       0       0       0
     143       1       4     -0.1816250        -6.631668938        -7.387371383        -10.80982548       0       0       0
     144       1       2      0.0925250        -7.693646137        -5.447112363        -10.92419648       0       0       0
     145       1       2      0.0925250        -6.902503334        -5.773656315        -9.484163042       0       0       0
     146       1       4     -0.1892000        -7.130043796        -7.913053241         -12.2012567       0       0       0
     108       1       5      0.0366800        -9.409610775        -2.885553681        -10.39437961       0       0       0
     148       1       2      0.0900750        -6.535505173        -8.173640159        -10.04848926       0       0       0
    1264       3       4     -0.0951000        -2.417859493        -10.55568015        -1.581730075       0       0       0
    1036       2       4     -0.1795000         20.82959014         25.66155743        -9.983639667       0       0       0
    1666       4       4     -0.2389500        -8.412031519         18.92548178        -2.074314776       0       0       0
     223       1       4     -0.1675750        -2.001211964        -7.127320134        -10.13536853       0       0       0
     227       1       2      0.0964750        -3.445076423        -6.160496937        -7.038684391       0       0       0
     685       2       5      0.0366800        -6.120254287         18.42613856        -10.62389331       0       0       0
    1099       3       7      0.2353800        -13.86186279          -7.5773486         -5.17124099       0       0       0
    1667       4       2      0.0883500        -10.16528327         19.98228537        -1.764996996       0       0       0
      29       1       2      0.0959750        -14.54517952        -8.120668227        -11.32006353       0       0       0
    2082       4       2      0.0959750         21.63183238         17.30283949        -1.979226936       0       0       0
    1653       4       2      0.0810250        -17.11490478         20.29824085        -8.488808102       0       0       0
    1861       4       2      0.0810250        -3.282568914          19.0301338        -7.364027716       0       0       0
    1859       4       2      0.0810250        -1.999032019         18.04365307        -8.055331052       0       0       0
     221       1       4      0.0029500        -3.808524608        -5.373259641        -9.571312137       0       0       0
     222       1       4     -0.1675750        -2.865283931        -6.807238542        -7.757558601       0       0       0
    1169       3       4     -0.1816250        -13.23303328        -12.10989255       -0.1141736049       0       0       0
    2084       4       2      0.0883500         21.98567863         19.14266916       -0.2483515636       0       0       0
      54       1       5     -0.1049200        -12.61467695         -1.38100259        -11.58881135       0       0       0
     226       1       4     -0.1769250        -3.710638341        -8.111414992        -7.897593827       0       0       0
    1045       3       5     -0.0920833        -16.45999496        -6.543866197        -5.123540399       0       0       0
    1035       2       2      0.0900750         20.83698255          24.0069216        -12.07827797       0       0       0
     229       1       4     -0.1816250        -4.180349584        -8.596376404        -6.569292836       0       0       0
    1274       3       2      0.0925250        -3.428480247        -13.26110528       -0.6950486603       0       0       0
     231       1       2      0.0925250        -4.480592452        -7.839044059        -8.468354084       0       0       0
     232       1       4     -0.1892000        -4.821599385        -9.949358786        -6.557069168       0       0       0
     233       1       2      0.0900750        -4.921471434        -7.842902009        -6.221022564       0       0       0
      32       1       2      0.0883500        -16.08485664        -10.66454714        -12.50706194       0       0       0
     235       1       4     -0.1795000        -6.129144312        -10.00350534        -7.434864064       0       0       0
     236       1       2      0.0959750        -4.993990241        -10.35175438        -5.567371458       0       0       0
     237       1       2      0.0959750        -4.088499371        -10.66057223        -7.005582995       0       0       0
     238       1       4     -0.2389500        -7.334962433         -9.20443553        -6.899599324       0       0       0
     239       1       2      0.0883500        -6.046156208        -9.674985345        -8.469241569       0       0       0
     240       1       2      0.0883500        -6.475267852        -11.01108867        -7.540260476       0       0       0
    1159       3       2      0.1159500        -8.597849636        -9.990783279        -1.474648539       0       0       0
    1652       4       2      0.0810250        -16.30873439         19.13742957        -9.568006405       0       0       0
     243       1       2      0.0810250         -7.41659155        -8.171974379        -7.202505594       0       0       0
    1049       3       6     -0.2728500        -16.52006167        -8.815219931        -4.133918337       0       0       0
    2078       4       2      0.0900750         21.58511534         19.26263249        -3.967306888       0       0       0
    2798       6       2      0.0883500        -9.785388761         14.81641906        -2.057399695       0       0       0
    1100       3       5      0.0366800         -13.0987461        -5.138699228        -5.575086274       0       0       0
    1176       3       2      0.0959750        -14.80517589        -13.20054768       -0.9444339313       0       0       0
    1729       4       5      0.0366800        -6.053305436         12.85779907        -3.867546243       0       0       0
      40       1       2      0.0925250        -21.08476462          -6.6320673        -9.570564467       0       0       0
    1732       4       2      0.1159500        -5.100146277         13.87665205        -6.125909936       0       0       0
     152       1       4     -0.2389500        -5.675116622        -10.01465457        -12.46044279       0       0       0
     589       2       4     -0.1675750        -12.76360817         22.54883724        -11.97041042       0       0       0
     111       1       5      0.0366800        -10.79772053          -2.9924626        -10.67264047       0       0       0
    1047       3       5      0.0267167        -17.15702461        -7.619240828        -4.454075817       0       0       0
     220       1       4     -0.0951000        -2.495971238        -6.085123399         -9.10896799       0       0       0
     610       2       4     -0.1769250        -11.93141421         22.58776027        -10.63085779       0       0       0
     581       2       5      0.0366800        -13.92931896         18.17514436        -11.24039774       0       0       0
     612       2       2      0.0964750        -13.61607491          23.3047209        -11.84276037       0       0       0
     613       2       4     -0.1816250        -11.17557579          23.9293941        -10.46004137       0       0       0
     700       2       2      0.0925250        -6.389813014         23.46276647         -13.3743255       0       0       0
    1153       3       5     -0.1049200         -11.2636066        -6.843668915        -4.917079032       0       0       0
     616       2       4     -0.1892000        -9.853487954         23.99133689        -11.34234945       0       0       0
     615       2       2      0.0925250        -11.23349835         21.78010027        -10.71433758       0       0       0
     618       2       2      0.0900750        -10.95735102         23.89226717        -9.412624179       0       0       0
     619       2       4     -0.1795000        -8.853864425         25.06231101        -10.85659462       0       0       0
     620       2       2      0.0959750        -9.297799677         23.06837114        -11.36649215       0       0       0
     621       2       2      0.0959750        -10.09897455         24.32397781        -12.37441955       0       0       0
     622       2       4     -0.2389500        -8.067209286         24.68639406        -9.637464699       0       0       0
     623       2       2      0.0883500        -9.437727602         25.96293383         -10.5955765       0       0       0
     624       2       2      0.0883500        -8.217957794         25.31893903        -11.70326942       0       0       0
    2792       6       2      0.0900750        -7.950473138         13.56625595       -0.7579968392       0       0       0
      11       1       2      0.1159500        -17.43866207        -3.778303153        -8.953646026       0       0       0
     156       1       2      0.0810250        -5.416128127        -9.834844208        -11.36621542       0       0       0
      38       1       2      0.0964750        -19.65989707         -4.86138071        -8.444281037       0       0       0
    1158       3       2      0.1159500         -9.85692672        -8.864336464        -1.560864227       0       0       0
      18       1       4     -0.1769250        -16.74530135        -6.524233717        -11.83437375       0       0       0
      10       1       2      0.1159500        -16.36402012        -5.102406022        -9.517494691       0       0       0
    1152       3       5      0.0366800        -9.440254599        -8.037225769        -3.917029378       0       0       0
    1656       4       2      0.0964750        -12.27670308         16.30941124        -3.453417575       0       0       0
     714       2       4     -0.1769250        -3.220625837         22.22582452        -10.65043294       0       0       0
     716       2       2      0.0964750        -4.863258613          23.1902029        -11.61101093       0       0       0
     717       2       4     -0.1816250        -2.817725611         23.67080011        -10.19848253       0       0       0
    1746       4       4     -0.1892000        -8.522200511         19.42469553        -6.538535866       0       0       0
     224       1       2      0.1159500        -4.695533001        -5.664750336        -9.052342786       0       0       0
    2691       6       2      0.0959750        -15.31197247         12.06692544        -1.821670269       0       0       0
     722       2       2      0.0900750        -3.714837252         24.16176475        -9.850891573       0       0       0
     625       2       2      0.0810250        -8.633323373         24.34417789        -8.743043634       0       0       0
     578       2       5      0.0366800        -12.52610015         18.37278702        -10.99966358       0       0       0
     215       1       5      0.0366800        -3.058574709        -3.223687331        -10.16867037       0       0       0
    1080       3       4     -0.1769250        -19.85905265        -12.18848197        -2.520628295       0       0       0
    1735       4       4      0.0029500        -6.156654686          15.2152693        -3.840371161       0       0       0
    1256       3       5      0.0366800        -1.644043836        -7.627694102        -2.616891725       0       0       0
     157       1       2      0.0810250        -6.516327745        -10.72369299        -12.32014809       0       0       0
    1626       4       4      0.0029500        -12.14416206         14.67851361        -5.509726818       0       0       0
    1041       2       2      0.0883500         21.04310479         26.13549856        -11.01220152       0       0       0
    1772       4       2      0.0883500        -1.397778147         19.58558022        -1.265569987       0       0       0
      34       1       2      0.0810250        -13.98749816        -11.00427208        -13.73890248       0       0       0
    1671       4       2      0.0810250        -7.670672907         19.72728759        -2.197837254       0       0       0
    1266       3       4     -0.1675750        -3.343780518        -11.08366937       -0.4063625502       0       0       0
     230       1       2      0.0925250        -3.146446317        -8.938871544        -8.390903258       0       0       0
     586       2       4     -0.0951000        -13.32883297         21.07306725        -12.34662816       0       0       0
       7       1       1      0.2162167        -20.19304171       -0.8546376496        -11.72340179       0       0       0
    2694       6       2      0.0883500         -17.9530008         13.63314382         -1.31706867       0       0       0
     582       2       4      0.0029500        -12.13945179         20.06134222        -12.54829395       0       0       0
     242       1       2      0.0810250        -8.337637697        -9.517219478        -7.126856682       0       0       0
    1078       3       2      0.0810250        -13.01896923        -14.42764875        -6.275913406       0       0       0
     721       2       2      0.0900750        -2.205628595         24.22335704        -10.88466927       0       0       0
     583       2       6     -0.2728500        -14.74679779         19.25971945        -11.47278187       0       0       0
     710       2       2      0.0883500        -9.804488894         22.86540488        -13.96378998       0       0       0
    1056       3       4     -0.0951000        -18.09666638         -10.4517453        -3.599845248       0       0       0
    1733       4       2      0.1159500        -3.772280527         14.96529898         -6.32973436       0       0       0
    1058       3       4     -0.1675750        -17.37915218        -11.62112093        -4.351606585       0       0       0
     687       2       6     -0.2728500        -6.769902198         19.41990406         -11.3160823       0       0       0
    1060       3       2      0.1159500        -18.98333074        -9.930198667        -5.593354238       0       0       0
    1062       3       4     -0.1769250        -16.53387319         -12.6580478        -3.472963396       0       0       0
    1063       3       2      0.0964750        -16.79460494        -11.12104297        -5.130537514       0       0       0
    1064       3       2      0.0964750        -18.02997162        -12.20758869        -4.990955621       0       0       0
    1065       3       4     -0.1816250        -16.32556899        -14.03889476        -4.071752565       0       0       0
    1637       4       2      0.0964750         -14.4272114         15.01843134        -6.901866107       0       0       0
    1067       3       2      0.0925250        -15.63720507        -12.09867875        -3.134431702       0       0       0
    1068       3       4     -0.1892000        -15.37813823        -14.04644147        -5.221373398       0       0       0
    1069       3       2      0.0900750        -17.27933261        -14.54588939        -4.380302265       0       0       0
    1070       3       2      0.0900750        -15.98557959         -14.7408401         -3.31322319       0       0       0
    1071       3       4     -0.1795000        -14.84468429        -15.36270012        -5.726890835       0       0       0
    1072       3       2      0.0959750        -14.53983578        -13.42260269        -4.986447451       0       0       0
    1073       3       2      0.0959750        -15.82107395        -13.58116287        -6.127870175       0       0       0
    1074       3       4     -0.2389500        -13.74498794        -15.08829555        -6.771596161       0       0       0
    1076       3       2      0.0883500        -15.62630044        -15.95165736        -6.147522445       0       0       0
     692       2       4     -0.1675750        -5.820931572         21.32347625        -13.59269711       0       0       0
    1673       4       7      0.2353800        -9.214829172         12.41492793        -3.620691372       0       0       0
    1670       4       2      0.0810250         -8.00728107         18.07216613        -2.684306581       0       0       0
    2800       6       2      0.0810250        -12.20693007         14.69806759        -2.101836191       0       0       0
      17       1       2      0.1159500        -20.39532057        -4.967812146        -11.08750078       0       0       0
    1052       3       4      0.0029500        -17.05613914        -9.465680957        -3.047167727       0       0       0
    3858       8       4     -0.2389500        -1.052363736         8.351332033         14.51464588       0       0       0
    1857       4       2      0.0883500        -1.286174326         18.97571641        -5.945792741       0       0       0
    1156       3       4      0.0029500        -9.337792335         -9.60887071        -2.122125669       0       0       0
    1150       3       5     -0.1049200        -8.780939781        -6.770104001         -4.21411128       0       0       0
     631       2       5     -0.1049200        -10.64992646         16.91980454        -9.987802443       0       0       0
    2052       4       2      0.1159500         20.40745411         15.18394883        -5.258291626       0       0       0
     588       2       4     -0.1675750        -14.13907562         21.21875965         -13.6671611       0       0       0
    1160       3       4     -0.0951000         -10.3513083        -10.66661306        -2.453414841       0       0       0
    1161       3       4      0.0029500        -11.05782547        -10.31830455        -3.769629595       0       0       0
    1768       4       2      0.0959750        -3.234201108         19.45133321        -2.832517761       0       0       0
    1163       3       4     -0.1675750        -9.661546645        -12.00960563        -2.617939199       0       0       0
    1164       3       2      0.1159500        -11.88344474        -10.98289904        -3.793558702       0       0       0
    1165       3       2      0.1159500        -10.41509331        -10.50714283        -4.627744291       0       0       0
    1037       2       2      0.0959750         18.94577891         24.95019261        -10.71456112       0       0       0
    1731       4       6     -0.2728500         -6.78168924         13.99729236        -4.128905835       0       0       0
    2243       5       2      0.0810250        -7.774136105        -19.50730752       -0.7259679315       0       0       0
    2686       6       4     -0.1892000        -16.40698048         12.14412458        -1.561124119       0       0       0
    1084       3       2      0.0925250        -20.54732018        -12.13270506        -3.396865303       0       0       0
    1765       4       2      0.0900750        -1.525443337         17.20946408        -2.419868549       0       0       0